Title                                                                   
SP        RCCSD-FC                                                    6-31G               
Number of atoms                            I                3
Info1-9                                    I   N=           9
          12          11           0           0           0         110
           1          14         301
Charge                                     I                0
Multiplicity                               I                1
Number of electrons                        I               10
Number of alpha electrons                  I                5
Number of beta electrons                   I                5
Number of basis functions                  I               13
Number of independent functions            I               13
Number of point charges in /Mol/           I                0
Number of translation vectors              I                0
Atomic numbers                             I   N=           3
           8           1           1
Nuclear charges                            R   N=           3
  8.00000000E+00  1.00000000E+00  1.00000000E+00
Current cartesian coordinates              R   N=           9
 -1.28218795E-17 -2.08166817E-16  2.09404099E-01  4.18132313E-17  1.48149973E+00
 -8.37616393E-01 -1.61282800E-16 -1.48149973E+00 -8.37616393E-01
Number of symbols in /Mol/                 I                0
Force Field                                I                0
Atom Types                                 C   N=           3
                                    
Int Atom Types                             I   N=           3
           0           0           0
MM charges                                 R   N=           3
  0.00000000E+00  0.00000000E+00  0.00000000E+00
Integer atomic weights                     I   N=           3
          16           1           1
Real atomic weights                        R   N=           3
  1.59949146E+01  1.00782504E+00  1.00782504E+00
Atom fragment info                         I   N=           3
           0           0           0
Atom residue num                           I   N=           3
           0           0           0
Nuclear spins                              I   N=           3
           0           1           1
Nuclear ZEff                               R   N=           3
 -5.60000000E+00 -1.00000000E+00 -1.00000000E+00
Nuclear QMom                               R   N=           3
  0.00000000E+00  0.00000000E+00  0.00000000E+00
Nuclear GFac                               R   N=           3
  0.00000000E+00  2.79284600E+00  2.79284600E+00
MicOpt                                     I   N=           3
          -1          -1          -1
Number of residues                         I                0
Number of secondary structures             I                0
Number of contracted shells                I                7
Number of primitive shells                 I               18
Pure/Cartesian d shells                    I                1
Pure/Cartesian f shells                    I                0
Highest angular momentum                   I                1
Largest degree of contraction              I                6
Shell types                                I   N=           7
           0          -1          -1           0           0           0
           0
Number of primitives per shell             I   N=           7
           6           3           1           3           1           3
           1
Shell to atom map                          I   N=           7
           1           1           1           2           2           3
           3
Primitive exponents                        R   N=          18
  5.48467166E+03  8.25234946E+02  1.88046958E+02  5.29645000E+01  1.68975704E+01
  5.79963534E+00  1.55396162E+01  3.59993359E+00  1.01376175E+00  2.70005823E-01
  1.87311370E+01  2.82539436E+00  6.40121692E-01  1.61277759E-01  1.87311370E+01
  2.82539436E+00  6.40121692E-01  1.61277759E-01
Contraction coefficients                   R   N=          18
  1.83107443E-03  1.39501722E-02  6.84450781E-02  2.32714336E-01  4.70192898E-01
  3.58520853E-01 -1.10777550E-01 -1.48026263E-01  1.13076702E+00  1.00000000E+00
  3.34946043E-02  2.34726953E-01  8.13757326E-01  1.00000000E+00  3.34946043E-02
  2.34726953E-01  8.13757326E-01  1.00000000E+00
P(S=P) Contraction coefficients            R   N=          18
  0.00000000E+00  0.00000000E+00  0.00000000E+00  0.00000000E+00  0.00000000E+00
  0.00000000E+00  7.08742682E-02  3.39752839E-01  7.27158577E-01  1.00000000E+00
  0.00000000E+00  0.00000000E+00  0.00000000E+00  0.00000000E+00  0.00000000E+00
  0.00000000E+00  0.00000000E+00  0.00000000E+00
Coordinates of each shell                  R   N=          21
  5.16220960E-33 -1.16242626E-17  2.09404099E-01  5.16220960E-33 -1.16242626E-17
  2.09404099E-01  5.16220960E-33 -1.16242626E-17  2.09404099E-01 -9.36924146E-32
  1.48149973E+00 -8.37616393E-01 -9.36924146E-32  1.48149973E+00 -8.37616393E-01
 -1.81425399E-16 -1.48149973E+00 -8.37616393E-01 -1.81425399E-16 -1.48149973E+00
 -8.37616393E-01
Constraint Structure                       R   N=           9
  5.16220960E-33 -1.16242626E-17  2.09404099E-01 -9.36924146E-32  1.48149973E+00
 -8.37616393E-01 -1.81425399E-16 -1.48149973E+00 -8.37616393E-01
Num ILSW                                   I              100
ILSW                                       I   N=         100
           0           1           0           0           2           0
           0           0           3           0           0          -1
           0           0           0           0           0           0
           0           0           1           0           0           0
           1           0           0           0           0           0
           0           0      100000           0          -1           0
           0           0           0           0           0           0
           0           0           0           1           4           0
           0           0           1           0           0           0
           0           0           4          40           0           0
           0           0           0           0           0           0
           0           0           0           0           0           0
           0           0           0           0           0           0
           0           0           0           0           0           0
           0           0           0           0           0           0
           0           0           0           0           0           0
           0           0           0           0
Num RLSW                                   I               40
RLSW                                       R   N=          40
  1.00000000E+00  1.00000000E+00  1.00000000E+00  1.00000000E+00  1.00000000E+00
  0.00000000E+00  0.00000000E+00  1.00000000E+00  0.00000000E+00  0.00000000E+00
  0.00000000E+00  0.00000000E+00  1.00000000E+00  0.00000000E+00  0.00000000E+00
  0.00000000E+00  0.00000000E+00  1.00000000E+00  0.00000000E+00  0.00000000E+00
  0.00000000E+00  0.00000000E+00  1.00000000E+00  0.00000000E+00  0.00000000E+00
  0.00000000E+00  0.00000000E+00  1.00000000E+00  0.00000000E+00  0.00000000E+00
  0.00000000E+00  0.00000000E+00  0.00000000E+00  0.00000000E+00  0.00000000E+00
  0.00000000E+00  0.00000000E+00  0.00000000E+00  1.00000000E+00  1.00000000E+00
MxBond                                     I                2
NBond                                      I   N=           3
           2           1           1
IBond                                      I   N=           6
           2           3           1           0           1           0
RBond                                      R   N=           6
  1.00000000E+00  1.00000000E+00  1.00000000E+00  0.00000000E+00  1.00000000E+00
  0.00000000E+00
Virial Ratio                               R      2.000113369823800E+00
SCF Energy                                 R     -7.598508077849718E+01
MP2 Energy                                 R     -7.611279724241351E+01
MP3 Energy                                 R     -7.611450551742446E+01
MP4D Energy                                R     -7.611737402629893E+01
MP4DQ Energy                               R     -7.611808433781371E+01
MP4SDQ Energy                              R     -7.611868198899040E+01
Cluster Energy                             R     -7.611943122421259E+01
Total Energy                               R     -7.611943122421259E+01
Post-SCF wavefunction norm                 R      1.022029898685458E+00
RMS Density                                R      3.370111494252542E-09
External E-field                           R   N=          35
  0.00000000E+00  0.00000000E+00  0.00000000E+00  0.00000000E+00  0.00000000E+00
  0.00000000E+00  0.00000000E+00  0.00000000E+00  0.00000000E+00  0.00000000E+00
  0.00000000E+00  0.00000000E+00  0.00000000E+00  0.00000000E+00  0.00000000E+00
  0.00000000E+00  0.00000000E+00  0.00000000E+00  0.00000000E+00  0.00000000E+00
  0.00000000E+00  0.00000000E+00  0.00000000E+00  0.00000000E+00  0.00000000E+00
  0.00000000E+00  0.00000000E+00  0.00000000E+00  0.00000000E+00  0.00000000E+00
  0.00000000E+00  0.00000000E+00  0.00000000E+00  0.00000000E+00  0.00000000E+00
IOpCl                                      I                0
IROHF                                      I                0
Alpha Orbital Energies                     R   N=          13
 -2.05570952E+01 -1.34931065E+00 -7.17000335E-01 -5.50612109E-01 -4.98698267E-01
  2.04120168E-01  2.99979203E-01  1.08694406E+00  1.15967657E+00  1.16642083E+00
  1.20774718E+00  1.38372083E+00  1.68072180E+00
Alpha MO coefficients                      R   N=         169
  9.95779575E-01  2.19594935E-02  0.00000000E+00  0.00000000E+00 -2.03220303E-03
 -8.00081134E-03  0.00000000E+00  0.00000000E+00  1.83418798E-03  8.58904422E-05
  1.97713306E-03  8.58904422E-05  1.97713306E-03 -2.13105336E-01  4.70094595E-01
  0.00000000E+00  0.00000000E+00 -1.05642278E-01  4.82685051E-01  0.00000000E+00
  0.00000000E+00 -5.80593201E-02  1.38594467E-01 -8.03777052E-03  1.38594467E-01
 -8.03777052E-03  0.00000000E+00  0.00000000E+00  0.00000000E+00  5.03430992E-01
  0.00000000E+00  0.00000000E+00  0.00000000E+00  2.66986301E-01  0.00000000E+00
  2.63358915E-01  1.18966148E-01 -2.63358915E-01 -1.18966148E-01 -7.24129266E-02
  1.73317751E-01  0.00000000E+00  0.00000000E+00  5.56802493E-01  2.92967066E-01
  0.00000000E+00  0.00000000E+00  4.14280428E-01 -1.37725610E-01 -7.88354260E-02
 -1.37725610E-01 -7.88354260E-02  0.00000000E+00  0.00000000E+00  6.40818185E-01
  0.00000000E+00  0.00000000E+00  0.00000000E+00  5.10866061E-01  0.00000000E+00
  0.00000000E+00  0.00000000E+00  0.00000000E+00  0.00000000E+00  0.00000000E+00
 -8.68040777E-02  1.07814208E-01  0.00000000E+00  0.00000000E+00 -2.23701275E-01
  1.18824139E+00  0.00000000E+00  0.00000000E+00 -4.55941728E-01 -6.38920043E-02
 -9.95034489E-01 -6.38920043E-02 -9.95034489E-01  0.00000000E+00  0.00000000E+00
  0.00000000E+00 -3.35186388E-01  0.00000000E+00  0.00000000E+00  0.00000000E+00
 -8.35247546E-01  0.00000000E+00  3.66718927E-02  1.37187873E+00 -3.66718927E-02
 -1.37187873E+00  0.00000000E+00  0.00000000E+00  0.00000000E+00 -1.33574976E-01
  0.00000000E+00  0.00000000E+00  0.00000000E+00 -7.71033851E-01  0.00000000E+00
  9.91664100E-01 -4.64902878E-01 -9.91664100E-01  4.64902878E-01  6.77212207E-02
 -3.16431510E-01  0.00000000E+00  0.00000000E+00  3.84827624E-01  9.26673677E-02
  0.00000000E+00  0.00000000E+00  1.69397711E-01  9.74463128E-01 -5.30453070E-01
  9.74463128E-01 -5.30453070E-01  0.00000000E+00  0.00000000E+00 -9.61976324E-01
  0.00000000E+00  0.00000000E+00  0.00000000E+00  1.03685209E+00  0.00000000E+00
  0.00000000E+00  0.00000000E+00  0.00000000E+00  0.00000000E+00  0.00000000E+00
  4.58111583E-02 -2.91777927E-01  0.00000000E+00  0.00000000E+00 -9.02820593E-01
 -4.14502192E-02  0.00000000E+00  0.00000000E+00  1.18569815E+00  2.32543597E-01
  1.07485117E-01  2.32543597E-01  1.07485117E-01  0.00000000E+00  0.00000000E+00
  0.00000000E+00 -1.03528161E+00  0.00000000E+00  0.00000000E+00  0.00000000E+00
  1.58453973E+00  0.00000000E+00  5.95000433E-02 -8.95682094E-01 -5.95000433E-02
  8.95682094E-01  5.97847025E-02 -1.69245841E+00  0.00000000E+00  0.00000000E+00
  1.90725104E-01  2.73186280E+00  0.00000000E+00  0.00000000E+00 -7.67750306E-01
 -3.93262003E-01 -6.28574828E-01 -3.93262003E-01 -6.28574828E-01
Total SCF Density                          R   N=          91
  2.08446895E+00 -1.81726595E-01  5.03020380E-01  0.00000000E+00  0.00000000E+00
  8.21295891E-01  2.20161569E-18 -5.19554025E-18 -4.62223187E-32  5.06885528E-01
 -3.96607825E-02  9.35945325E-02  1.38565517E-32 -7.52183570E-18  6.42386873E-01
 -2.64088815E-01  5.55016666E-01  4.83820551E-33 -1.24510517E-17  2.24298208E-01
  6.37757147E-01  0.00000000E+00  0.00000000E+00  6.54744524E-01 -3.54371110E-32
  8.07034934E-33  0.00000000E+00  5.21968265E-01  1.75415908E-18 -4.94593895E-18
 -2.92741352E-32  2.68818356E-01 -1.13679053E-17 -1.03618759E-17 -1.84889275E-32
  1.42563369E-01 -3.16001208E-02  8.90981152E-02  1.02158422E-32 -1.13679053E-17
  4.73604333E-01  1.86662962E-01  7.54975420E-33 -1.15153262E-17  3.50005045E-01
 -3.89531562E-02  8.25682059E-02 -1.07852077E-32  2.65166079E-01 -1.82655146E-01
  5.30954447E-02 -5.39260384E-33  1.40626445E-01 -1.30207136E-01  2.15069391E-01
  1.87807689E-02 -3.47973488E-02 -3.85185989E-33  1.19782492E-01 -8.61013025E-02
 -5.39834276E-02 -2.31111593E-33  6.35246635E-02 -6.43793602E-02  8.21492642E-02
  4.08729672E-02 -3.89531562E-02  8.25682059E-02  1.07852077E-32 -2.65166079E-01
 -1.82655146E-01  5.30954447E-02  5.39260384E-33 -1.40626445E-01 -1.30207136E-01
 -6.23622808E-02 -4.31739183E-02  2.15069391E-01  1.87807689E-02 -3.47973488E-02
  3.85185989E-33 -1.19782492E-01 -8.61013025E-02 -5.39834276E-02  2.31111593E-33
 -6.35246635E-02 -6.43793602E-02 -4.31739183E-02 -1.57388104E-02  8.21492642E-02
  4.08729672E-02
Total CC Density                           R   N=          91
  2.08401807E+00 -1.81807669E-01  5.20962717E-01 -2.39994900E-19 -2.99000429E-21
  8.20009150E-01  2.35533952E-18  3.67624028E-19 -2.27580498E-18  5.32452974E-01
 -3.77042560E-02  8.08725626E-02 -1.93300255E-18 -8.36785480E-18  6.53675667E-01
 -2.62228190E-01  5.31535376E-01  3.82754353E-18 -2.99808549E-17  2.35296764E-01
  6.71976117E-01 -2.83346513E-19  2.58710715E-19  6.32360031E-01 -5.79730467E-19
 -1.05868022E-19  3.60747694E-18  5.44592672E-01  2.22051501E-18 -2.65590564E-18
 -3.75461775E-18  2.45936028E-01 -2.34369602E-17 -2.26148198E-17 -2.33848580E-18
  1.27329334E-01 -3.37111684E-02  8.26797100E-02 -1.86757131E-18 -8.99472348E-18
  4.45056514E-01  2.12765346E-01 -4.28606234E-19 -1.87814586E-17  3.39943806E-01
 -3.73656447E-02  7.89981578E-02 -5.77729492E-20  2.57584521E-01 -1.78767470E-01
  4.02374927E-02  2.03229461E-19  1.27658259E-01 -1.27071799E-01  2.31842501E-01
  1.88659032E-02 -3.33373305E-02  1.83039658E-18  1.25740719E-01 -9.26632616E-02
 -6.31093112E-02  1.55626938E-18  6.36840509E-02 -7.31235763E-02  9.74791105E-02
  5.51859149E-02 -3.73656447E-02  7.89981578E-02 -1.08877755E-18 -2.57584521E-01
 -1.78767470E-01  4.02374927E-02 -1.91036484E-18 -1.27658259E-01 -1.27071799E-01
 -6.11488989E-02 -4.59727781E-02  2.31842501E-01  1.88659032E-02 -3.33373305E-02
 -7.34965346E-18 -1.25740719E-01 -9.26632616E-02 -6.31093112E-02 -6.34563012E-18
 -6.36840509E-02 -7.31235763E-02 -4.59727781E-02 -1.99797808E-02  9.74791105E-02
  5.51859149E-02
QEq coupling tensors                       R   N=          18
  1.83971591E+00  5.86817714E-17 -1.70688038E+00  4.01449462E-17 -1.79301018E-14
 -1.32835526E-01  3.00543996E-01 -1.36179086E-18 -3.06840557E-01  2.52316147E-19
  3.55234958E-01  6.29656163E-03  3.00543996E-01 -1.11715234E-16 -3.06840557E-01
 -7.71075062E-17 -3.55234958E-01  6.29656163E-03
Mulliken Charges                           R   N=           3
 -7.46915006E-01  3.73457503E-01  3.73457503E-01
ONIOM Charges                              I   N=          16
           0           0           0           0           0           0
           0           0           0           0           0           0
           0           0           0           0
ONIOM Multiplicities                       I   N=          16
           1           0           0           0           0           0
           0           0           0           0           0           0
           0           0           0           0
Atom Layers                                I   N=           3
           1           1           1
Atom Modifiers                             I   N=           3
           0           0           0
Force Field                                I                0
Atom Modified Types                        C   N=           3
                                    
Int Atom Modified Types                    I   N=           3
           0           0           0
Link Atoms                                 I   N=           3
           0           0           0
Atom Modified MM Charges                   R   N=           3
  0.00000000E+00  0.00000000E+00  0.00000000E+00
Link Distances                             R   N=          12
  0.00000000E+00  0.00000000E+00  0.00000000E+00  0.00000000E+00  0.00000000E+00
  0.00000000E+00  0.00000000E+00  0.00000000E+00  0.00000000E+00  0.00000000E+00
  0.00000000E+00  0.00000000E+00
Cartesian Gradient                         R   N=           9
  0.00000000E+00  0.00000000E+00  0.00000000E+00  0.00000000E+00  0.00000000E+00
  0.00000000E+00  0.00000000E+00  0.00000000E+00  0.00000000E+00
Dipole Moment                              R   N=           3
  9.62583848E-01  1.34013811E-16 -6.10905102E-17
Quadrupole Moment                          R   N=           6
 -3.17854376E-01 -2.32777203E-01  5.50631579E-01 -1.30886910E-16 -3.57285167E-16
  1.10613907E+00
