Title                                                                   
SP        RCCSD-FC                                                    6-31G               
Number of atoms                            I                9
Info1-9                                    I   N=           9
          18          17           0           0           0         110
           1          14         301
Charge                                     I                0
Multiplicity                               I                1
Number of electrons                        I               26
Number of alpha electrons                  I               13
Number of beta electrons                   I               13
Number of basis functions                  I               39
Number of independent functions            I               39
Number of point charges in /Mol/           I                0
Number of translation vectors              I                0
Atomic numbers                             I   N=           9
           6           6           1           1           1           1
           1           8           1
Nuclear charges                            R   N=           9
  6.00000000E+00  6.00000000E+00  1.00000000E+00  1.00000000E+00  1.00000000E+00
  1.00000000E+00  1.00000000E+00  8.00000000E+00  1.00000000E+00
Current cartesian coordinates              R   N=          27
 -2.26685828E+00 -4.65100812E-01 -2.17659081E-02  1.73968941E-01  1.05811021E+00
  7.33289387E-02 -3.91155693E+00  8.19336929E-01  1.96937254E-01 -2.29615243E+00
 -1.87678039E+00  1.53089342E+00 -2.42010014E+00 -1.46200086E+00 -1.86232184E+00
  3.18288424E-01  2.10885616E+00  1.89115474E+00  1.66266656E-01  2.47845735E+00
 -1.47130160E+00  2.26842816E+00 -5.30117658E-01 -2.48945970E-01  2.55316517E+00
 -1.38498429E+00  1.39682760E+00
Number of symbols in /Mol/                 I                0
Force Field                                I                0
Atom Types                                 C   N=           9
                                                            
                                                
Int Atom Types                             I   N=           9
           0           0           0           0           0           0
           0           0           0
MM charges                                 R   N=           9
  0.00000000E+00  0.00000000E+00  0.00000000E+00  0.00000000E+00  0.00000000E+00
  0.00000000E+00  0.00000000E+00  0.00000000E+00  0.00000000E+00
Integer atomic weights                     I   N=           9
          12          12           1           1           1           1
           1          16           1
Real atomic weights                        R   N=           9
  1.20000000E+01  1.20000000E+01  1.00782504E+00  1.00782504E+00  1.00782504E+00
  1.00782504E+00  1.00782504E+00  1.59949146E+01  1.00782504E+00
Atom fragment info                         I   N=           9
           0           0           0           0           0           0
           0           0           0
Atom residue num                           I   N=           9
           0           0           0           0           0           0
           0           0           0
Nuclear spins                              I   N=           9
           0           0           1           1           1           1
           1           0           1
Nuclear ZEff                               R   N=           9
 -3.60000000E+00 -3.60000000E+00 -1.00000000E+00 -1.00000000E+00 -1.00000000E+00
 -1.00000000E+00 -1.00000000E+00 -5.60000000E+00 -1.00000000E+00
Nuclear QMom                               R   N=           9
  0.00000000E+00  0.00000000E+00  0.00000000E+00  0.00000000E+00  0.00000000E+00
  0.00000000E+00  0.00000000E+00  0.00000000E+00  0.00000000E+00
Nuclear GFac                               R   N=           9
  0.00000000E+00  0.00000000E+00  2.79284600E+00  2.79284600E+00  2.79284600E+00
  2.79284600E+00  2.79284600E+00  0.00000000E+00  2.79284600E+00
MicOpt                                     I   N=           9
          -1          -1          -1          -1          -1          -1
          -1          -1          -1
Number of residues                         I                0
Number of secondary structures             I                0
Number of contracted shells                I               21
Number of primitive shells                 I               54
Pure/Cartesian d shells                    I                1
Pure/Cartesian f shells                    I                0
Highest angular momentum                   I                1
Largest degree of contraction              I                6
Shell types                                I   N=          21
           0          -1          -1           0          -1          -1
           0           0           0           0           0           0
           0           0           0           0           0          -1
          -1           0           0
Number of primitives per shell             I   N=          21
           6           3           1           6           3           1
           3           1           3           1           3           1
           3           1           3           1           6           3
           1           3           1
Shell to atom map                          I   N=          21
           1           1           1           2           2           2
           3           3           4           4           5           5
           6           6           7           7           8           8
           8           9           9
Primitive exponents                        R   N=          54
  3.04752488E+03  4.57369518E+02  1.03948685E+02  2.92101553E+01  9.28666296E+00
  3.16392696E+00  7.86827235E+00  1.88128854E+00  5.44249258E-01  1.68714478E-01
  3.04752488E+03  4.57369518E+02  1.03948685E+02  2.92101553E+01  9.28666296E+00
  3.16392696E+00  7.86827235E+00  1.88128854E+00  5.44249258E-01  1.68714478E-01
  1.87311370E+01  2.82539436E+00  6.40121692E-01  1.61277759E-01  1.87311370E+01
  2.82539436E+00  6.40121692E-01  1.61277759E-01  1.87311370E+01  2.82539436E+00
  6.40121692E-01  1.61277759E-01  1.87311370E+01  2.82539436E+00  6.40121692E-01
  1.61277759E-01  1.87311370E+01  2.82539436E+00  6.40121692E-01  1.61277759E-01
  5.48467166E+03  8.25234946E+02  1.88046958E+02  5.29645000E+01  1.68975704E+01
  5.79963534E+00  1.55396162E+01  3.59993359E+00  1.01376175E+00  2.70005823E-01
  1.87311370E+01  2.82539436E+00  6.40121692E-01  1.61277759E-01
Contraction coefficients                   R   N=          54
  1.83473713E-03  1.40373228E-02  6.88426223E-02  2.32184443E-01  4.67941348E-01
  3.62311985E-01 -1.19332420E-01 -1.60854152E-01  1.14345644E+00  1.00000000E+00
  1.83473713E-03  1.40373228E-02  6.88426223E-02  2.32184443E-01  4.67941348E-01
  3.62311985E-01 -1.19332420E-01 -1.60854152E-01  1.14345644E+00  1.00000000E+00
  3.34946043E-02  2.34726953E-01  8.13757326E-01  1.00000000E+00  3.34946043E-02
  2.34726953E-01  8.13757326E-01  1.00000000E+00  3.34946043E-02  2.34726953E-01
  8.13757326E-01  1.00000000E+00  3.34946043E-02  2.34726953E-01  8.13757326E-01
  1.00000000E+00  3.34946043E-02  2.34726953E-01  8.13757326E-01  1.00000000E+00
  1.83107443E-03  1.39501722E-02  6.84450781E-02  2.32714336E-01  4.70192898E-01
  3.58520853E-01 -1.10777550E-01 -1.48026263E-01  1.13076702E+00  1.00000000E+00
  3.34946043E-02  2.34726953E-01  8.13757326E-01  1.00000000E+00
P(S=P) Contraction coefficients            R   N=          54
  0.00000000E+00  0.00000000E+00  0.00000000E+00  0.00000000E+00  0.00000000E+00
  0.00000000E+00  6.89990666E-02  3.16423961E-01  7.44308291E-01  1.00000000E+00
  0.00000000E+00  0.00000000E+00  0.00000000E+00  0.00000000E+00  0.00000000E+00
  0.00000000E+00  6.89990666E-02  3.16423961E-01  7.44308291E-01  1.00000000E+00
  0.00000000E+00  0.00000000E+00  0.00000000E+00  0.00000000E+00  0.00000000E+00
  0.00000000E+00  0.00000000E+00  0.00000000E+00  0.00000000E+00  0.00000000E+00
  0.00000000E+00  0.00000000E+00  0.00000000E+00  0.00000000E+00  0.00000000E+00
  0.00000000E+00  0.00000000E+00  0.00000000E+00  0.00000000E+00  0.00000000E+00
  0.00000000E+00  0.00000000E+00  0.00000000E+00  0.00000000E+00  0.00000000E+00
  0.00000000E+00  7.08742682E-02  3.39752839E-01  7.27158577E-01  1.00000000E+00
  0.00000000E+00  0.00000000E+00  0.00000000E+00  0.00000000E+00
Coordinates of each shell                  R   N=          63
 -2.26685828E+00 -4.65100812E-01 -2.17659081E-02 -2.26685828E+00 -4.65100812E-01
 -2.17659081E-02 -2.26685828E+00 -4.65100812E-01 -2.17659081E-02  1.73968941E-01
  1.05811021E+00  7.33289387E-02  1.73968941E-01  1.05811021E+00  7.33289387E-02
  1.73968941E-01  1.05811021E+00  7.33289387E-02 -3.91155693E+00  8.19336929E-01
  1.96937254E-01 -3.91155693E+00  8.19336929E-01  1.96937254E-01 -2.29615243E+00
 -1.87678039E+00  1.53089342E+00 -2.29615243E+00 -1.87678039E+00  1.53089342E+00
 -2.42010014E+00 -1.46200086E+00 -1.86232184E+00 -2.42010014E+00 -1.46200086E+00
 -1.86232184E+00  3.18288424E-01  2.10885616E+00  1.89115474E+00  3.18288424E-01
  2.10885616E+00  1.89115474E+00  1.66266656E-01  2.47845735E+00 -1.47130160E+00
  1.66266656E-01  2.47845735E+00 -1.47130160E+00  2.26842816E+00 -5.30117658E-01
 -2.48945970E-01  2.26842816E+00 -5.30117658E-01 -2.48945970E-01  2.26842816E+00
 -5.30117658E-01 -2.48945970E-01  2.55316517E+00 -1.38498429E+00  1.39682760E+00
  2.55316517E+00 -1.38498429E+00  1.39682760E+00
Constraint Structure                       R   N=          27
 -2.26685828E+00 -4.65100812E-01 -2.17659081E-02  1.73968941E-01  1.05811021E+00
  7.33289387E-02 -3.91155693E+00  8.19336929E-01  1.96937254E-01 -2.29615243E+00
 -1.87678039E+00  1.53089342E+00 -2.42010014E+00 -1.46200086E+00 -1.86232184E+00
  3.18288424E-01  2.10885616E+00  1.89115474E+00  1.66266656E-01  2.47845735E+00
 -1.47130160E+00  2.26842816E+00 -5.30117658E-01 -2.48945970E-01  2.55316517E+00
 -1.38498429E+00  1.39682760E+00
Num ILSW                                   I              100
ILSW                                       I   N=         100
           0           1           0           0           2           0
           0           0           3           0           0          -1
           0           0           0           0           0           0
           0           0           1           0           0           0
           1           0           0           0           0           0
           0           0      100000           0          -1           0
           0           0           0           0           0           0
           0           0           0           1           1           0
           0           0           1           0           0           0
           0           0           4          40           0           0
           0           0           0           0           0           0
           0           0           0           0           0           0
           0           0           0           0           0           0
           0           0           0           0           0           0
           0           0           0           0           0           0
           0           0           0           0           0           0
           0           0           0           0
Num RLSW                                   I               40
RLSW                                       R   N=          40
  1.00000000E+00  1.00000000E+00  1.00000000E+00  1.00000000E+00  1.00000000E+00
  0.00000000E+00  0.00000000E+00  1.00000000E+00  0.00000000E+00  0.00000000E+00
  0.00000000E+00  0.00000000E+00  1.00000000E+00  0.00000000E+00  0.00000000E+00
  0.00000000E+00  0.00000000E+00  1.00000000E+00  0.00000000E+00  0.00000000E+00
  0.00000000E+00  0.00000000E+00  1.00000000E+00  0.00000000E+00  0.00000000E+00
  0.00000000E+00  0.00000000E+00  1.00000000E+00  0.00000000E+00  0.00000000E+00
  0.00000000E+00  0.00000000E+00  0.00000000E+00  0.00000000E+00  0.00000000E+00
  0.00000000E+00  0.00000000E+00  0.00000000E+00  1.00000000E+00  1.00000000E+00
MxBond                                     I                4
NBond                                      I   N=           9
           4           4           1           1           1           1
           1           2           1
IBond                                      I   N=          36
           2           3           4           5           1           6
           7           8           1           0           0           0
           1           0           0           0           1           0
           0           0           2           0           0           0
           2           0           0           0           2           9
           0           0           8           0           0           0
RBond                                      R   N=          36
  1.00000000E+00  1.00000000E+00  1.00000000E+00  1.00000000E+00  1.00000000E+00
  1.00000000E+00  1.00000000E+00  1.00000000E+00  1.00000000E+00  0.00000000E+00
  0.00000000E+00  0.00000000E+00  1.00000000E+00  0.00000000E+00  0.00000000E+00
  0.00000000E+00  1.00000000E+00  0.00000000E+00  0.00000000E+00  0.00000000E+00
  1.00000000E+00  0.00000000E+00  0.00000000E+00  0.00000000E+00  1.00000000E+00
  0.00000000E+00  0.00000000E+00  0.00000000E+00  1.00000000E+00  1.00000000E+00
  0.00000000E+00  0.00000000E+00  1.00000000E+00  0.00000000E+00  0.00000000E+00
  0.00000000E+00
Virial Ratio                               R      2.000125726604452E+00
SCF Energy                                 R     -1.540055441110655E+02
MP2 Energy                                 R     -1.543136139089879E+02
MP3 Energy                                 R     -1.543329376283014E+02
MP4D Energy                                R     -1.543423840459628E+02
MP4DQ Energy                               R     -1.543412288010103E+02
MP4SDQ Energy                              R     -1.543431452498361E+02
Cluster Energy                             R     -1.543455413927888E+02
Total Energy                               R     -1.543455413927888E+02
Post-SCF wavefunction norm                 R      1.068921750604965E+00
RMS Density                                R      8.754094548503769E-09
External E-field                           R   N=          35
  0.00000000E+00  0.00000000E+00  0.00000000E+00  0.00000000E+00  0.00000000E+00
  0.00000000E+00  0.00000000E+00  0.00000000E+00  0.00000000E+00  0.00000000E+00
  0.00000000E+00  0.00000000E+00  0.00000000E+00  0.00000000E+00  0.00000000E+00
  0.00000000E+00  0.00000000E+00  0.00000000E+00  0.00000000E+00  0.00000000E+00
  0.00000000E+00  0.00000000E+00  0.00000000E+00  0.00000000E+00  0.00000000E+00
  0.00000000E+00  0.00000000E+00  0.00000000E+00  0.00000000E+00  0.00000000E+00
  0.00000000E+00  0.00000000E+00  0.00000000E+00  0.00000000E+00  0.00000000E+00
IOpCl                                      I                0
IROHF                                      I                0
Alpha Orbital Energies                     R   N=          39
 -2.05590283E+01 -1.12844379E+01 -1.12260730E+01 -1.36746304E+00 -1.01265404E+00
 -8.41559832E-01 -6.88668766E-01 -6.26502900E-01 -5.93202508E-01 -5.43611033E-01
 -5.20552009E-01 -4.68672294E-01 -4.35811003E-01  2.06488186E-01  2.60177668E-01
  2.88281828E-01  3.01022078E-01  3.10180236E-01  3.32531492E-01  4.02254548E-01
  4.08957656E-01  7.55967319E-01  7.79875994E-01  8.21735951E-01  8.36178941E-01
  9.21887885E-01  9.27188984E-01  1.09863884E+00  1.14878491E+00  1.16907568E+00
  1.19671004E+00  1.21181795E+00  1.22597891E+00  1.25830092E+00  1.32890430E+00
  1.36284129E+00  1.48776645E+00  1.73284710E+00  2.08564947E+00
Alpha MO coefficients                      R   N=        1521
 -1.15905921E-05 -3.34427136E-04 -2.81750778E-04  2.72422101E-05  2.10076471E-05
 -1.02605427E-04  1.38158935E-04 -3.31385923E-04 -1.55296575E-04 -2.19210943E-05
 -5.51001447E-04  3.00403101E-04 -2.23249149E-04  8.66514350E-07  5.10285094E-03
  1.84211053E-03 -1.35218234E-03  6.13903355E-05 -2.94175654E-05  5.23880955E-04
  5.42708525E-06 -3.22691616E-04 -5.99092306E-05 -2.54216810E-04 -3.51604130E-04
 -5.62407917E-04 -2.64237582E-04 -3.25671975E-04  9.95827294E-01  2.26358615E-02
 -1.23141124E-03  3.74246220E-04  1.67149157E-03 -1.04079899E-02  2.25552257E-03
 -1.15134366E-03 -1.80594754E-03  4.31350242E-04  1.44215842E-03  4.98072086E-03
 -4.75176164E-04 -6.66984423E-05 -1.24444531E-05 -1.64812604E-06  4.79533939E-03
  2.39769516E-03  1.32032563E-03  6.77002070E-05  9.96266225E-01  2.53605121E-02
  4.65046085E-04 -4.32708169E-04  5.91971587E-05 -1.73104036E-02  1.30719739E-03
  6.78124388E-04  1.18822733E-04 -1.52729240E-04  1.93188286E-04 -1.93339868E-04
  1.42642440E-04 -2.12915925E-04  2.02618608E-04  7.92051110E-05  2.94745625E-03
  1.48077410E-04  3.02054462E-03 -8.50902168E-05 -3.62300007E-06 -2.46361019E-05
 -1.91037148E-05  8.74094259E-05  1.50834534E-03 -3.88258354E-04  3.12932124E-04
 -3.91686328E-04  1.85124681E-04  6.45229198E-04  9.96220531E-01  2.57333934E-02
 -8.05338205E-06  2.65558488E-05  7.29572752E-05 -1.79732832E-02 -8.30404522E-04
 -4.84945028E-04 -5.37137632E-05 -5.15337655E-03 -5.98049912E-04  2.52497223E-07
  7.89645039E-05  6.99801089E-06  4.16141772E-03 -1.96075593E-03 -1.21464789E-03
 -1.20759256E-04  3.12153190E-05  3.04456153E-03  3.02056160E-05  3.10666084E-03
  5.89440409E-05  3.06202818E-03 -1.38014390E-04  1.81716120E-04 -1.45380675E-04
  1.46505588E-04 -7.07266248E-06 -2.68709805E-04  8.69326667E-05  1.44847176E-05
 -1.93419192E-05  3.72336910E-04 -1.46442575E-04 -4.90040419E-05  1.51112959E-04
 -1.68510716E-04 -6.49466550E-05 -1.62078213E-02  3.52871697E-02  2.25739899E-02
  5.67850523E-03  4.81178957E-04  7.39194115E-03 -2.73434074E-03 -1.52745955E-03
 -2.08979996E-03 -7.69335827E-02  1.50456744E-01  7.61475365E-02 -6.45928224E-02
 -6.41641958E-03  3.57842209E-02 -2.56860649E-02  1.13696602E-02  9.00037613E-03
  4.75968703E-03 -5.82382984E-03  6.83148168E-03  5.62972947E-03  6.53070164E-03
  2.00061794E-03  2.50796591E-02  1.30399178E-03  2.40336210E-02  5.41870976E-03
 -2.03616313E-01  4.40907774E-01 -6.49292479E-02  2.11648662E-02  7.84238470E-02
  4.87700718E-01 -4.98351832E-02  2.16156856E-02  4.91701221E-02  1.17376224E-01
 -6.25407040E-03 -1.57415205E-01  2.99351891E-01  4.54857680E-02  3.66963906E-02
  4.05011952E-03  2.80127604E-01 -8.35225949E-04  7.36390619E-03 -8.84541720E-04
 -1.20868966E-01  2.38425997E-01 -1.04858966E-01 -1.40304456E-02 -1.33418838E-03
  2.27984136E-01 -1.57779842E-02 -3.93216633E-03  9.86505101E-03  9.43025929E-02
  1.54943156E-02  9.11435130E-02  1.72243612E-02  8.93683704E-02  1.23919285E-02
  7.20018153E-02  6.28208569E-03  7.48416588E-02  1.40414755E-02  5.81259240E-02
 -1.25136973E-01 -7.17161964E-02  4.91698446E-02 -3.75905431E-02 -1.90284387E-01
 -1.80007833E-02  1.36668083E-02 -2.15468940E-02 -6.82781107E-02 -1.57805993E-02
  1.12893206E-01 -2.06201200E-01  8.84400213E-02  7.02456346E-02 -5.64851961E-04
 -3.01620653E-01  2.96659983E-03  8.10970368E-03 -5.84942883E-03 -1.27978570E-01
  2.52054023E-01  8.59406508E-02  1.02444853E-01 -8.08536302E-03  3.27007771E-01
 -6.69953993E-03  2.64403873E-02  7.55101205E-03 -9.61536726E-02 -3.77092745E-02
 -1.07811127E-01 -4.26810202E-02 -1.01316027E-01 -3.84037166E-02  1.20798866E-01
  4.15836694E-02  1.30754458E-01  4.76711642E-02  3.49825463E-02 -7.62332782E-02
 -1.05341728E-01  1.69712906E-01 -5.96756203E-02 -1.29307056E-01 -4.38336263E-02
  8.05137104E-02 -3.05700220E-02 -1.08409760E-01 -4.08067914E-02  1.14061385E-02
 -1.66729231E-02  8.42650350E-03  5.92963214E-02  1.17621882E-01 -6.20417208E-02
 -1.47593252E-02  2.75516516E-02  3.98837092E-02 -2.25902190E-02  2.79532778E-02
 -9.37648846E-02  1.12426223E-01  2.62334823E-01  1.06290739E-01 -2.44833707E-02
  6.67973854E-03  1.29765389E-01  1.44951191E-02  7.84177906E-03  2.03138382E-02
  2.34801940E-02 -8.31409046E-02 -5.31576316E-02  1.72903907E-01  1.06252707E-01
 -4.05804499E-02 -1.44482506E-02  3.60380698E-02 -8.35182568E-02  1.33178516E-01
 -1.31405502E-01  3.19844933E-01 -1.47319768E-01  7.88400153E-02 -7.28275926E-02
  1.87060265E-01  1.96804780E-01  9.15701499E-02 -5.55263005E-03  4.55254708E-03
 -1.64756764E-01  1.43978530E-01 -1.11709137E-01  3.68915497E-02 -6.75457387E-02
  7.42131771E-02 -4.23792765E-02  8.82022501E-03 -2.31037356E-02 -8.04686735E-02
  2.78450511E-01 -1.38833058E-01  8.38044869E-03 -1.26260504E-03  1.26135519E-01
 -1.01720315E-01  1.31640771E-01  9.64428586E-02 -1.05168573E-01 -8.19074821E-02
  2.97897847E-02  2.39767166E-02 -4.22042322E-04  1.15865179E-02  1.63581483E-01
  9.26124721E-02 -2.83245619E-02  7.05613369E-02  3.20838723E-01 -4.94646845E-02
 -4.65674763E-02  9.22623264E-02  2.12610583E-01 -3.25512058E-02 -2.91316634E-02
  5.42305868E-02  3.95978310E-02 -1.38466825E-02  1.98243891E-02 -2.37341569E-01
 -1.11962149E-01  1.39820835E-01  7.89450426E-02 -1.04431522E-01 -3.04558845E-02
  7.26049492E-02  2.58508538E-02 -4.55319139E-02  2.57859638E-01  8.38597520E-02
  1.25603740E-01 -1.06372153E-01  1.21669118E-01  5.47970986E-02  6.09320138E-02
  9.89223703E-02  6.79317533E-02  1.29231384E-01  9.34890813E-02 -2.09069474E-02
 -1.21943861E-02  7.67237895E-02  6.85052723E-02 -5.40366487E-02 -3.50261393E-02
 -1.63161136E-02  3.61217275E-02  9.48721843E-02  3.52227143E-01 -3.97778430E-02
  7.39306559E-02  6.80594032E-02  2.37765824E-01 -2.52336437E-02 -1.09665720E-01
 -6.34593237E-02  1.89204954E-03 -7.17411856E-03  1.57115606E-02  1.97226686E-01
  3.08248334E-01 -8.36921640E-03  2.27229876E-02  9.57711435E-02  1.92420625E-01
  2.52379253E-03 -4.57738210E-03 -1.41397013E-01 -5.45267207E-02  9.79907721E-03
  2.04031149E-03 -5.71250467E-02 -2.32235449E-02 -3.42517541E-02  9.42373390E-02
  8.78413567E-02  6.16174928E-02  3.84772879E-02 -2.48537605E-01 -1.81145298E-01
 -1.76381329E-02 -9.94586358E-03 -3.49196527E-02 -4.01366066E-02 -3.71737734E-02
  8.86732727E-02  8.73576607E-03 -1.32174304E-01 -2.81575263E-01  1.49613344E-01
  1.01745087E-02 -9.87731498E-02 -2.01785026E-01 -8.71985112E-02 -4.83688750E-02
 -1.41193809E-03  5.37707884E-03 -1.52916836E-01  3.01793273E-01 -1.09802817E-01
  2.94860812E-03 -9.25042216E-02  1.67560664E-01 -7.45541272E-02  3.45074841E-03
  1.57442534E-03  6.46069845E-02 -1.82092079E-01  5.19833167E-02 -6.46828434E-02
 -2.54047146E-03 -8.35904726E-02  6.26846265E-02  2.14291442E-01  1.82326731E-01
 -2.03718349E-01 -1.75900919E-01 -2.47400475E-02 -2.77474472E-02 -3.69668958E-02
 -3.79529217E-02 -1.15572843E-01 -8.33685871E-02  1.09360262E-02 -3.56563546E-02
 -2.22655077E-01  1.02987351E-01  1.25267461E-01 -8.14587181E-03 -1.71461869E-01
  8.57901952E-02  9.62507998E-02 -9.34100997E-03 -2.47631780E-02 -6.24015657E-03
  9.40763624E-03  7.64934101E-02  2.03924522E-02 -1.89096461E-01  3.08033479E-02
  4.65245848E-02  1.03080952E-02 -9.82140417E-02  3.80031998E-03 -1.34186443E-02
 -8.73805861E-02 -2.58752062E-02  3.07774102E-01  2.83444845E-02 -8.05614282E-03
 -2.86922812E-02  1.40737542E-01 -4.70223292E-02 -4.37673166E-02 -1.18745038E-01
 -1.35993447E-01  1.25287725E-01  1.30573645E-01  1.94757125E-01  2.01811888E-01
 -1.95581564E-01 -1.91716865E-01 -3.62783336E-02  8.93813106E-02  1.46364975E-01
 -3.21951016E-02 -2.88105043E-01  1.41579461E-01  1.28639726E-01 -3.47014162E-02
 -2.34068422E-01 -1.16221212E-01 -8.70713141E-02 -2.97653017E-02  5.68729730E-02
  2.57005893E-01  1.13814079E-01  2.19957084E-02  1.59249468E-01  1.22206899E-01
  1.08415303E-01  1.66260509E-02 -6.62266300E-03  2.02860421E-02 -1.78337219E-01
 -1.84405907E-01 -5.84257266E-02  7.53051026E-03 -3.39593676E-02 -8.85438922E-02
 -2.94237001E-02 -7.28351343E-02 -1.14450139E-01 -1.82475287E-02 -3.73423989E-02
 -4.16269620E-02 -6.39400767E-02 -1.28865141E-01 -1.37229390E-01 -5.84385065E-02
 -6.47338460E-02 -1.38396171E-03  6.54698769E-03  3.35703629E-01  3.68065788E-01
  1.26820525E-01 -1.21178395E-02  2.86941986E-01  3.02412078E-01  1.07764949E-01
 -3.20613224E-03 -7.08026976E-03  5.04547151E-02 -3.68375551E-02  5.40770720E-02
  5.49259562E-02 -4.77361947E-02 -8.01253996E-01  2.41035279E-01  3.11252028E-01
 -1.02530551E-01  4.05732070E-02 -1.21954489E-02  5.35857826E-02 -1.19464077E-01
 -8.79058007E-02 -8.26354076E-01  1.36546046E-01 -4.12000503E-01 -2.46628983E-01
  3.11779431E-02  4.26703569E-01 -1.29940335E-02  6.12055748E-01 -1.09023774E-02
  2.80425001E-01  8.68108093E-03  7.71879272E-01 -1.62299351E-02  2.77279999E-01
  5.84360968E-02 -8.08558928E-02  5.90132154E-03  9.93206564E-02 -1.76107086E-01
 -7.61181802E-01 -1.77050335E-03  2.22530973E-01 -3.66381758E-01  6.47893770E-02
  1.10520315E+00 -9.48766874E-02  6.38905787E-02 -1.11184016E-01 -1.63798717E-02
 -5.33137568E-02  1.73648188E+00 -3.25818692E-01 -1.89376185E-01 -1.47606926E-01
 -5.74831903E-02  7.91610153E-02  7.68765288E-02  7.38190333E-02 -8.98536559E-02
  8.79693771E-01  3.35403125E-01  3.70452418E-01 -3.35053655E-01  3.00084847E-02
 -8.08608491E-01 -1.37768868E-02 -5.93570535E-01 -3.15158349E-02 -1.00762345E+00
  2.53078296E-02 -2.27190551E-01 -1.80195741E-02 -1.03924184E+00  4.47601014E-02
 -4.88365370E-02 -8.58635799E-03 -1.70678719E-02 -1.30064237E-01 -6.59108213E-01
  2.42115789E-02 -4.45844269E-02 -2.37065663E-01  6.25734877E-02  7.66373000E-01
 -9.18764631E-02  3.90779445E-02  3.83281227E-02 -1.33684170E-01  7.56534750E-02
  1.75757063E+00  3.31014104E-01 -2.97837066E-01  3.02920466E-01  8.78092655E-02
 -4.43956269E-02  6.72906484E-02 -1.62337669E-01  2.95517905E-02 -1.73215526E+00
  4.65865231E-01 -4.52093290E-01  9.27669970E-02  3.26136614E-02  6.10562947E-03
 -3.37979733E-02 -1.35658738E+00 -7.93363725E-03 -5.36719884E-01  3.81080504E-03
  7.87316627E-01  4.34661817E-02  1.25774721E+00  7.54299988E-03 -1.96157195E-02
  2.35382170E-02 -3.54942950E-02  1.10712879E-02 -5.88665116E-02  6.49352174E-02
 -4.36544534E-02  2.22769469E-02 -3.36795030E-03 -1.51303036E-01 -2.06776389E-02
  6.16468058E-03  8.51645395E-03  6.51545663E-03 -1.94822080E-01  3.62648184E-01
  6.90318260E-02  1.00493505E-01 -6.61821931E-01  5.86531701E-02 -4.05690112E-02
 -6.26887300E-02 -6.05333996E-03 -2.39176197E-01 -1.02855453E+00 -2.05273947E-01
  5.92617621E-02 -8.11741395E-01 -2.56587040E-02 -1.00812426E-01  6.24749112E-02
  7.71750934E-01 -3.86767541E-02 -1.01411608E+00  4.69270142E-02  1.52422088E+00
 -4.14684517E-02 -5.21402878E-01 -3.78127410E-02  4.90516459E-02 -4.04253861E-02
  6.70186090E-03  1.14268341E-01  5.58460015E-01 -1.08320049E-01  4.16641308E-02
  3.19454305E-01 -2.71678830E-02 -4.97958651E-01  3.19555910E-02 -1.51060062E-02
  2.03620702E-01 -2.13636449E-01 -7.09916297E-02 -5.69748552E-01  8.82638709E-01
 -1.13782364E+00 -3.15578265E-01 -4.04362784E-02  4.65134118E-02  3.38460103E-02
  1.71171457E-02 -2.13039266E-02  6.80617147E-01 -7.29414798E-02  5.21450061E-01
 -3.18255696E-02  6.78682122E-02  2.02229214E+00 -2.02814937E-02 -3.84094194E-01
 -3.77511118E-02 -7.30139997E-01  2.26168643E-03 -3.81880346E-01 -1.48691364E-02
 -6.09592894E-01  1.14108335E-02 -4.32245401E-02  8.37683132E-02 -1.22624132E-02
  4.50424036E-03  2.71686540E-02  7.02500981E-02 -4.35293196E-02  2.30069700E-02
 -1.58804744E-02 -4.32559521E-03  1.16382198E-02 -6.99233992E-03  2.82116491E-02
 -2.55438274E-02  2.23805554E-01 -2.28095297E-01  9.04691002E-02 -1.97930104E-01
  1.40133487E+00 -2.12898477E-03  6.27955980E-03 -2.72938217E-02  4.91541729E-02
 -2.48068524E-01  5.94485023E-02 -1.83420234E-01  2.79703737E-01 -1.28395910E+00
 -9.77373459E-03  1.15923045E-01 -3.04520830E-02 -1.17418498E+00  4.29445755E-02
  1.35248432E+00 -7.88446849E-03  1.05699139E+00 -7.03833335E-03 -1.24901004E+00
 -3.00819232E-04 -9.15974953E-03 -2.58350456E-02  2.65099822E-02  6.53969106E-02
  6.76685102E-02 -4.29860079E-02  3.06593711E-02  1.92964191E-01  4.16790248E-02
  4.93401810E-02  6.89494123E-02  1.06047786E-02 -1.32351109E-01 -1.74600665E-01
 -1.67618481E-02 -1.66948853E+00 -1.73204742E+00 -1.05019773E+00 -5.92736926E-02
 -7.86354087E-02  3.72607198E-02 -2.29394047E-01 -2.32756951E-01 -3.26179046E-02
  1.80892213E+00 -1.34259002E+00 -1.42210510E+00 -1.39381446E-01 -6.82764402E-02
 -8.01111174E-02 -5.24540406E-02 -3.20891933E-01 -5.33481001E-02 -3.18613179E-01
  4.50691034E-02  4.46100700E-01  5.70572255E-02  3.72990593E-01  7.93722581E-03
  1.39981871E-02  7.68356876E-02  3.54676679E-02 -1.59258954E-02 -2.45188220E-01
  2.97454909E-01  1.28205743E-01 -1.49429039E-02  2.84701308E-02  1.84027758E-02
  2.38240995E-02  1.46860710E-02  4.64289103E-02  9.08005191E-02 -9.27375719E-03
 -4.48831993E-01 -3.34126962E-01  5.73370881E-01  5.12588914E-02 -7.67144137E-02
  5.89930330E-02  1.81125181E-01 -1.19941821E-01 -6.59458859E-02  1.31380918E+00
  1.33758831E+00 -1.10944779E+00 -4.55162918E-01  6.06107879E-02 -1.51201892E-01
 -7.82151007E-03  5.10421551E-01 -4.13234953E-02  3.20986139E-01  5.32850388E-02
  2.72437844E-01  4.44111307E-02 -2.65856281E-01  5.47118155E-02 -5.17253353E-02
  2.14976096E-01 -2.45852441E-01  7.82060300E-02 -1.03980012E+00  7.61564188E-01
 -7.12423485E-01  1.89905510E-01 -7.53137231E-03 -8.66988132E-01 -2.94459363E-03
  3.32002352E-02  3.65256558E-01  5.65788315E-01  1.38115807E-01  6.88320767E-01
 -2.41267969E-01 -9.14108980E-01 -2.43211446E-01  2.71088754E-02 -6.55637969E-02
 -5.24617630E-01 -3.53920331E-01  2.72315451E-02  2.29075395E-01  7.07113119E-01
  1.12772226E+00  4.11221982E-02 -1.30376465E-03  1.02518563E-01 -1.42821331E-01
 -8.92033480E-02 -2.41851324E-01 -1.17758988E-01 -1.15139673E-01 -1.74161486E-01